# vtk DataFile Version 3.0
Written from jax-fem
ASCII
DATASET UNSTRUCTURED_GRID
POINTS 550 double
-6.275 6.275 0.0
-6.275 5.8828125 0.0
-6.275 5.4906250000000005 0.0
-6.275 5.098437500000001 0.0
-6.275 4.706250000000001 0.0
-6.275 4.3140625 0.0
-6.275 3.9218750000000004 0.0
-6.275 3.5296875000000005 0.0
-6.275 3.1375 0.0
-6.275 2.7453125000000003 0.0
-6.275 2.3531250000000004 0.0
-6.275 1.9609375000000002 0.0
-6.275 1.56875 0.0
-6.275 1.1765625000000002 0.0
-6.275 0.784375 0.0
-6.275 0.3921875 0.0
-6.275 0.0 0.0
-6.275 -0.3921875 0.0
-6.275 -0.784375 0.0
-6.275 -1.1765625000000002 0.0
-6.275 -1.56875 0.0
-6.275 -1.9609375000000002 0.0
-6.275 -2.3531250000000004 0.0
-6.275 -2.7453125000000003 0.0
-6.275 -3.1375 0.0
-6.275 -3.5296875000000005 0.0
-6.275 -3.9218750000000004 0.0
-6.275 -4.3140625 0.0
-6.275 -4.706250000000001 0.0
-6.275 -5.098437500000001 0.0
-6.275 -5.4906250000000005 0.0
-6.275 -5.8828125 0.0
-6.275 -6.275 0.0
-5.8828125 -6.275 0.0
-5.4906250000000005 -6.275 0.0
-5.098437500000001 -6.275 0.0
-4.706250000000001 -6.275 0.0
-4.3140625 -6.275 0.0
-3.9218750000000004 -6.275 0.0
-3.5296875000000005 -6.275 0.0
-3.1375 -6.275 0.0
-2.7453125000000003 -6.275 0.0
-2.3531250000000004 -6.275 0.0
-1.9609375000000002 -6.275 0.0
-1.56875 -6.275 0.0
-1.1765625000000002 -6.275 0.0
-0.784375 -6.275 0.0
-0.3921875 -6.275 0.0
0.0 -6.275 0.0
0.3921875 -6.275 0.0
0.784375 -6.275 0.0
1.1765625000000002 -6.275 0.0
1.56875 -6.275 0.0
1.9609375000000002 -6.275 0.0
2.3531250000000004 -6.275 0.0
2.7453125000000003 -6.275 0.0
3.1375 -6.275 0.0
3.5296875000000005 -6.275 0.0
3.9218750000000004 -6.275 0.0
4.3140625 -6.275 0.0
4.706250000000001 -6.275 0.0
5.098437500000001 -6.275 0.0
5.4906250000000005 -6.275 0.0
5.8828125 -6.275 0.0
6.275 -6.275 0.0
6.275 -5.8828125 0.0
6.275 -5.4906250000000005 0.0
6.275 -5.098437500000001 0.0
6.275 -4.706250000000001 0.0
6.275 -4.3140625 0.0
6.275 -3.9218750000000004 0.0
6.275 -3.5296875000000005 0.0
6.275 -3.1375 0.0
6.275 -2.7453125000000003 0.0
6.275 -2.3531250000000004 0.0
6.275 -1.9609375000000002 0.0
6.275 -1.56875 0.0
6.275 -1.1765625000000002 0.0
6.275 -0.784375 0.0
6.275 -0.3921875 0.0
6.275 0.0 0.0
6.275 0.3921875 0.0
6.275 0.784375 0.0
6.275 1.1765625000000002 0.0
6.275 1.56875 0.0
6.275 1.9609375000000002 0.0
6.275 2.3531250000000004 0.0
6.275 2.7453125000000003 0.0
6.275 3.1375 0.0
6.275 3.5296875000000005 0.0
6.275 3.9218750000000004 0.0
6.275 4.3140625 0.0
6.275 4.706250000000001 0.0
6.275 5.098437500000001 0.0
6.275 5.4906250000000005 0.0
6.275 5.8828125 0.0
6.275 6.275 0.0
5.8828125 6.275 0.0
5.4906250000000005 6.275 0.0
5.098437500000001 6.275 0.0
4.706250000000001 6.275 0.0
4.3140625 6.275 0.0
3.9218750000000004 6.275 0.0
3.5296875000000005 6.275 0.0
3.1375 6.275 0.0
2.7453125000000003 6.275 0.0
2.3531250000000004 6.275 0.0
1.9609375000000002 6.275 0.0
1.56875 6.275 0.0
1.1765625000000002 6.275 0.0
0.784375 6.275 0.0
0.3921875 6.275 0.0
0.0 6.275 0.0
-0.3921875 6.275 0.0
-0.784375 6.275 0.0
-1.1765625000000002 6.275 0.0
-1.56875 6.275 0.0
-1.9609375000000002 6.275 0.0
-2.3531250000000004 6.275 0.0
-2.7453125000000003 6.275 0.0
-3.1375 6.275 0.0
-3.5296875000000005 6.275 0.0
-3.9218750000000004 6.275 0.0
-4.3140625 6.275 0.0
-4.706250000000001 6.275 0.0
-5.098437500000001 6.275 0.0
-5.4906250000000005 6.275 0.0
-5.8828125 6.275 0.0
0.0 4.775 0.0
0.5028766445275837 4.766749737394427 0.0
1.0056685250486677 4.7568547645328385 0.0
1.507310742735304 4.724916364484732 0.0
2.005379239663592 4.654405230056478 0.0
2.4944540868255562 4.536211264879644 0.0
2.9650027884869448 4.35868755068836 0.0
3.4027244131308274 4.110923113641808 0.0
3.789920103241836 3.789920103241836 0.0
4.110923113641808 3.4027244131308256 0.0
4.35868755068836 2.965002788486944 0.0
4.536211264879645 2.494454086825556 0.0
4.65440523005648 2.005379239663592 0.0
4.724916364484732 1.5073107427353036 0.0
4.756854764532841 1.0056685250486674 0.0
4.766749737394428 0.5028766445275836 0.0
4.775 0.0 0.0
4.766749737394427 -0.5028766445275837 0.0
4.7568547645328385 -1.0056685250486677 0.0
4.724916364484732 -1.507310742735304 0.0
4.654405230056478 -2.005379239663592 0.0
4.536211264879644 -2.4944540868255562 0.0
4.35868755068836 -2.9650027884869448 0.0
4.110923113641808 -3.4027244131308274 0.0
3.789920103241836 -3.789920103241836 0.0
3.4027244131308256 -4.110923113641808 0.0
2.965002788486944 -4.35868755068836 0.0
2.494454086825556 -4.536211264879645 0.0
2.005379239663592 -4.65440523005648 0.0
1.5073107427353036 -4.724916364484732 0.0
1.0056685250486674 -4.756854764532841 0.0
0.5028766445275836 -4.766749737394428 0.0
0.0 -4.775 0.0
-0.5028766445275837 -4.766749737394427 0.0
-1.0056685250486677 -4.7568547645328385 0.0
-1.507310742735304 -4.724916364484732 0.0
-2.005379239663592 -4.654405230056478 0.0
-2.4944540868255562 -4.536211264879644 0.0
-2.9650027884869448 -4.35868755068836 0.0
-3.4027244131308274 -4.110923113641808 0.0
-3.789920103241836 -3.789920103241836 0.0
-4.110923113641808 -3.4027244131308256 0.0
-4.35868755068836 -2.965002788486944 0.0
-4.536211264879645 -2.494454086825556 0.0
-4.65440523005648 -2.005379239663592 0.0
-4.724916364484732 -1.5073107427353036 0.0
-4.756854764532841 -1.0056685250486674 0.0
-4.766749737394428 -0.5028766445275836 0.0
-4.775 0.0 0.0
-4.766749737394427 0.5028766445275837 0.0
-4.7568547645328385 1.0056685250486677 0.0
-4.724916364484732 1.507310742735304 0.0
-4.654405230056478 2.005379239663592 0.0
-4.536211264879644 2.4944540868255562 0.0
-4.35868755068836 2.9650027884869448 0.0
-4.110923113641808 3.4027244131308274 0.0
-3.789920103241836 3.789920103241836 0.0
-3.4027244131308256 4.110923113641808 0.0
-2.965002788486944 4.35868755068836 0.0
-2.494454086825556 4.536211264879645 0.0
-2.005379239663592 4.65440523005648 0.0
-1.5073107427353036 4.724916364484732 0.0
-1.0056685250486674 4.756854764532841 0.0
-0.5028766445275836 4.766749737394428 0.0
-1.7802029076264914 5.925546703011398 0.0
-0.24921580725748643 5.196223970576295 0.0
0.7665028792800579 5.212730225345821 0.0
1.7802029076264914 5.925546703011398 0.0
2.156870454306408 5.954386520384285 0.0
2.5353519520346772 5.91177561778259 0.0
5.295429480588976 5.932971427903453 0.0
5.940293337695172 5.691511550857361 0.0
-3.7256751764217646 -5.932365437433723 0.0
5.932849542123574 4.510183866310527 0.0
-1.8171597945654168 -5.112973383317633 0.0
5.916695112831929 2.9418548435967082 0.0
5.954386520384285 2.156870454306408 0.0
5.212730225345821 -0.7665028792800579 0.0
5.932025201891179 0.19700081596096092 0.0
5.6652740447413255 -5.935868719731238 0.0
5.935763854504247 -5.705303430148909 0.0
5.932853893022778 -5.296016102468888 0.0
5.933339984667988 -4.902206214404731 0.0
5.933084482673978 -4.510178002376237 0.0
5.299886531010982 -5.927787966024031 0.0
5.932889793129354 -4.1179709568399065 0.0
5.932365296355178 -3.725675140183407 0.0
4.902759837570824 -5.932770114138576 0.0
5.931913192261022 -3.3342501792651342 0.0
4.5101948044836675 -5.9330643932125 0.0
5.916695112831929 -2.9418548435967082 0.0
5.91177561778259 -2.5353519520346772 0.0
3.8688996227725294 -4.275064600577986 0.0
5.954386520384285 -2.156870454306408 0.0
4.117970960240854 -5.932888729188411 0.0
5.925546703011398 -1.7802029076264914 0.0
4.27506474710734 -3.8688995250687244 0.0
5.929908289809193 -1.3737489291357161 0.0
5.933474946317658 -0.9793384198535915 0.0
3.7256751403214277 -5.93236524073358 0.0
5.93370172368619 -0.5890853441503381 0.0
2.880098484301169 -4.848011275385805 0.0
5.932025201891179 -0.19700081596096095 0.0
2.3513337535154273 -5.011919850063497 0.0
2.9418548435967082 -5.916695112831929 0.0
1.8171597945654163 -5.112973383317633 0.0
5.112973383317633 -1.8171597945654168 0.0
1.7802029076264914 -5.925546703011398 0.0
5.166285182541863 -1.2942925233818103 0.0
1.2942925233818101 -5.166285182541864 0.0
0.7665028792800573 -5.212730225345821 0.0
0.9793384198535915 -5.9334749463176575 0.0
0.24921580725748643 -5.196223970576295 0.0
5.196223970576295 0.24921580725748643 0.0
-0.19700081596096095 -5.9320252018911805 0.0
-0.7665028792800579 -5.212730225345821 0.0
5.166285182541864 1.2942925233818101 0.0
-1.2942925233818103 -5.166285182541863 0.0
-1.7802029076264914 -5.925546703011397 0.0
-2.351333753515428 -5.011919850063495 0.0
5.932802903026458 4.117961879266898 0.0
-2.9418548435967082 -5.916695112831929 0.0
4.8480132093482595 2.8800998586668705 0.0
-3.4131887329612294 -4.638789539060799 0.0
5.932479516717651 4.90273827526417 0.0
-3.868972931809336 -4.2751480695303865 0.0
5.927750651385907 5.300478394375052 0.0
-5.295429480588976 -5.932971427903453 0.0
-5.940293337695172 -5.691511550857361 0.0
-5.932479516717651 -4.90273827526417 0.0
4.902189204339659 5.933345935259626 0.0
-5.932802903026458 -4.117961879266898 0.0
-5.9319128405772945 -3.334250052449586 0.0
-5.916695112831929 -2.9418548435967082 0.0
-5.954386520384285 -2.156870454306408 0.0
-5.925546703011398 -1.7802029076264914 0.0
2.9418548435967082 5.916695112831929 0.0
-5.929908289809193 -1.3737489291357163 0.0
2.351333753515428 5.011919850063495 0.0
-5.933701723686191 -0.5890853441503381 0.0
1.8171597945654168 5.112973383317633 0.0
-5.93202520189118 -0.19700081596096092 0.0
1.3737489291357161 5.929908289809193 0.0
-5.166285182541863 1.2942925233818103 0.0
-5.933701723686191 0.5890853441503381 0.0
-5.933474946317658 0.9793384198535915 0.0
0.2492158072574866 5.196223970576295 0.0
-5.929908289809193 1.3737489291357161 0.0
-0.19700081596096092 5.93202520189118 0.0
-5.925546703011397 1.7802029076264914 0.0
-0.5890853441503381 5.93370172368619 0.0
-5.954386520384285 2.156870454306408 0.0
-2.156870454306408 5.954386520384285 0.0
-1.8171597945654163 5.112973383317633 0.0
-2.5353519520346772 5.911775617782591 0.0
-2.3513337535154273 5.011919850063497 0.0
-2.9418548435967082 5.916695112831929 0.0
-5.91177561778259 2.5353519520346772 0.0
-3.3342501792651342 5.931913192261022 0.0
-5.916695112831929 2.9418548435967082 0.0
-3.413182036128568 4.638778401848002 0.0
-5.931913192261022 3.3342501792651342 0.0
-3.725675140183407 5.932365296355178 0.0
[...]
POINT_DATA 550
VECTORS dfdX double
0.0006113688615452864 0.0030045402830248037 0.0
0.0010292043971952699 0.0014614404004111784 0.0
0.0015755542902199076 0.00022399058803813183 0.0
0.0015271625841913107 0.00010737555572470198 0.0
0.0015905669208699414 5.21146332791858e-05 0.0
0.0016507391183976762 6.734171265157844e-06 0.0
0.001599805653969473 2.9406810623620952e-05 0.0
0.0014341308177525675 -4.3286825179928516e-05 0.0
0.0011512868414907925 -6.352089037453463e-05 0.0
0.000778012895341339 -4.405302345524689e-05 0.0
0.0005542317063145974 -2.2438042830056577e-05 0.0
0.0003907836673515869 7.595884587308123e-05 0.0
0.00027809024496472216 0.00018294013489056463 0.0
0.00016878880626426535 6.32339487707475e-05 0.0
0.00028517124250040455 0.00014936930470446405 0.0
0.00042342879420553353 0.0001756348645555923 0.0
0.0006604325317103108 1.0834900455538853e-05 0.0
0.0004331611579341745 -0.00016741189131212064 0.0
0.0002997470654608812 -0.00014419329298589258 0.0
0.00018065808768150316 -6.245595750019092e-05 0.0
0.0002827283913020487 -0.00020014583041966732 0.0
0.00036098977700865467 -9.353879876200983e-05 0.0
0.0004824468888848876 1.3701880537523378e-05 0.0
0.0006976096905038478 2.7206420600486592e-05 0.0
0.0010322403461096382 4.655458575862596e-05 0.0
0.0012745152397205654 3.511126629190999e-05 0.0
0.0013869822034402476 -1.3288494281950736e-05 0.0
0.0013672219464036526 -3.6569883346950025e-06 0.0
0.001240420979506878 -2.526904583913318e-05 0.0
0.0010467876710703226 -4.340915233464508e-05 0.0
0.0009276614419908739 -1.574272932472839e-05 0.0
0.0009192073853070228 -0.0002392168988571004 0.0
0.0016803017235594731 -0.002198815424673381 0.0
-7.435501399650577e-05 0.00033538193552498777 0.0
-7.115919154952884e-05 0.00021086370610634306 0.0
-4.099592788348895e-05 -0.00013149668364388422 0.0
-6.470938927015347e-06 -0.0001253370900311536 0.0
3.5559377441072943e-06 -6.930764615398506e-05 0.0
1.0290574355950107e-05 -4.7435218141634695e-05 0.0
8.994266019589795e-06 -4.191599466922663e-06 0.0
-5.853984823598288e-06 3.1428197451883495e-05 0.0
-2.4771650093632892e-06 1.2515324638378758e-05 0.0
-1.8768119811884796e-06 -2.7638398635689452e-09 0.0
-4.588052397947096e-08 1.09144423106573e-06 0.0
-4.5205998092338616e-08 -1.3803223462039512e-06 0.0
1.3370461597462139e-07 -1.7467032493261835e-06 0.0
5.0122018087147266e-08 1.061953766712358e-07 0.0
-1.3189910276774355e-07 5.021828535159105e-07 0.0
5.623547773553735e-09 5.24552732280581e-08 0.0
1.2057464306468903e-07 -6.834904537965154e-08 0.0
-7.389433596023323e-08 3.170633252796086e-07 0.0
-8.54807514545409e-08 -4.100883927622877e-07 0.0
5.3546500266379205e-08 -3.192310340022624e-07 0.0
1.4017040819929676e-07 1.1828970463109484e-06 0.0
1.6875566431945877e-06 2.6649209003346658e-06 0.0
2.6828188192494607e-06 1.3434607182001086e-05 0.0
5.375372326024193e-06 3.0039127464401035e-05 0.0
-8.99402652145262e-06 -1.2048526957323365e-05 0.0
-9.287319333466482e-06 -5.2849254006099515e-05 0.0
-3.2907561402234973e-06 -7.653829116640782e-05 0.0
8.54749206049942e-06 -0.0001301043870414755 0.0
3.861867928193342e-05 -9.749359946898625e-05 0.0
8.70557011100449e-05 0.00020675872632761597 0.0
1.6944913428879483e-05 0.0019575707370632963 0.0
-0.0006113451456279397 -0.0030043909624183243 0.0
-0.0010292134016036134 -0.0014614081686539827 0.0
-0.0015755714087407053 -0.00022406708884611966 0.0
-0.0015271791836627795 -0.00010741300442284631 0.0
-0.0015906326682683769 -5.204048710605944e-05 0.0
-0.0016507169624642268 -6.739391080882027e-06 0.0
-0.001599806871553687 -2.9395925236791902e-05 0.0
-0.0014341123227242377 4.3282302681265356e-05 0.0
-0.0011512847401705924 6.352157767323961e-05 0.0
-0.000778000501268288 4.4056930831382025e-05 0.0
-0.0005542169618915914 2.2436761848621868e-05 0.0
-0.0003907760176631853 -7.596132359444524e-05 0.0
-0.00027809088073283306 -0.00018294132851351256 0.0
-0.00016879003758516625 -6.323478758685782e-05 0.0
-0.0002851746032244071 -0.00014936967468154002 0.0
-0.00042343462829108174 -0.00017563347757105553 0.0
-0.0006604373673938117 -1.0833581334503494e-05 0.0
-0.0004331644369490083 0.00016741330926652162 0.0
-0.0002997480124069249 0.00014419455892479582 0.0
-0.0001806580027316747 6.245652659135585e-05 0.0
-0.00028272794917121003 0.00020014593900851235 0.0
-0.00036099000830706906 9.353847758687642e-05 0.0
-0.00048244816656217563 -1.3702206490694727e-05 0.0
-0.0006976111131828978 -2.720697375335201e-05 0.0
-0.0010322425936288042 -4.655500426078087e-05 0.0
-0.001274518012393902 -3.5111369095582924e-05 0.0
-0.001386984811145622 1.328868542424652e-05 0.0
-0.0013672240655058716 3.6569358023617336e-06 0.0
-0.0012404226881669522 2.5269176143431077e-05 0.0
-0.0010467888713039087 4.340934844539662e-05 0.0
-0.0009276622956338299 1.5742727124686592e-05 0.0
-0.0009192077905367847 0.00023921677128764063 0.0
-0.0016803017864930711 0.002198813791959411 0.0
7.435522307438976e-05 -0.00033538216209164567 0.0
7.115923151793018e-05 -0.000210862941442518 0.0
4.0995805024223155e-05 0.00013149730058714074 0.0
6.470823038986793e-06 0.00012533710073102887 0.0
-3.555980206777844e-06 6.930729237171353e-05 0.0
-1.0290591871665295e-05 4.743475484768459e-05 0.0
-8.994283715909655e-06 4.1912833999726696e-06 0.0
5.854032056223965e-06 -3.142831759872538e-05 0.0
2.4771788800223047e-06 -1.2515284437995487e-05 0.0
1.8768128624976457e-06 2.9126612810147034e-09 0.0
4.5879678387659036e-08 -1.0914226595262446e-06 0.0
4.520458653740725e-08 1.380372691088377e-06 0.0
-1.3370729312217383e-07 1.7467630782061785e-06 0.0
-5.012112458900943e-08 -1.061858652368354e-07 0.0
1.3189989403268641e-07 -5.022002432752668e-07 0.0
-5.6251021751993735e-09 -5.245083653367452e-08 0.0
-1.2057633693538556e-07 6.836780416767148e-08 0.0
7.389495150263688e-08 -3.1707587400463247e-07 0.0
8.54857180006765e-08 4.100513981807422e-07 0.0
-5.353396742172499e-08 3.1920906967538344e-07 0.0
-1.4018293106364623e-07 -1.1827423068845892e-06 0.0
-1.6873861614410183e-06 -2.6645562044489552e-06 0.0
-2.6829779365133985e-06 -1.3433995002341596e-05 0.0
-5.375613447150989e-06 -3.003877844851872e-05 0.0
8.99548115159077e-06 1.205212611846576e-05 0.0
9.284893104357394e-06 5.284071414509715e-05 0.0
3.292248779795804e-06 7.655890190012836e-05 0.0
-8.545161681308804e-06 0.00013004652822234036 0.0
-3.8615330028165904e-05 9.753310548207874e-05 0.0
-8.705390805881587e-05 -0.0002067529033519464 0.0
-1.696976158721482e-05 -0.0019577202461450853 0.0
-1.285999470349084e-07 5.316049601768683e-06 0.0
1.4346961744601789e-08 5.657300327750072e-06 0.0
5.705203482078153e-07 8.259976221168119e-06 0.0
6.192341571394922e-06 1.1086743254037142e-05 0.0
8.953912614948517e-06 3.2457898224495486e-05 0.0
1.2915904186429584e-05 0.00010024639693764711 0.0
2.7474737301258202e-05 0.00021264320518876983 0.0
0.00014601423742175828 0.0004240090728357534 0.0
0.0003860310572828354 0.0003855171673877534 0.0
0.0004119376651704434 0.00018430539652719054 0.0
0.0002755721540437872 8.857898618224422e-05 0.0
0.0004497184735250605 0.00023423801422383175 0.0
0.0012503107610005043 0.0004961232355949755 0.0
0.002554318374624976 0.000482669879026691 0.0
0.003894257320449849 0.00031645091255387396 0.0
0.004950811997631664 0.00023824716142330912 0.0
0.005220075785763324 -2.1844151167783047e-06 0.0
0.004859493053690614 -0.00024250310843389913 0.0
0.003741817227052199 -0.00031750503252928367 0.0
0.002403279393036477 -0.0004723233403683419 0.0
0.0011427942099780503 -0.00046550085061283536 0.0
0.00040850863034046843 -0.0002073374724316829 0.0
0.00027382320356926645 -8.037028533220889e-05 0.0
0.0004084648356564573 -0.00018593397586757473 0.0
0.0003649508246638417 -0.0003755302113002336 0.0
0.00012835517948217882 -0.00039776031725365183 0.0
2.3737991152414564e-05 -0.0001890062754569705 0.0
1.2141217284210743e-05 -8.710663096844741e-05 0.0
9.13889063718379e-06 -2.6126001664373887e-05 0.0
6.171404520862407e-06 -8.28807648379766e-06 0.0
8.175244221370335e-07 -6.824737471421142e-06 0.0
3.1021492658001994e-07 -5.001481808748367e-06 0.0
1.2858785695911507e-07 -5.316074114892395e-06 0.0
-1.4360362321627324e-08 -5.657291084505384e-06 0.0
-5.705333859892902e-07 -8.259932663006318e-06 0.0
-6.1923294204408895e-06 -1.1086653123087726e-05 0.0
-8.9538572004082e-06 -3.245769774083621e-05 0.0
-1.2915782319990884e-05 -0.00010024585228006878 0.0
-2.747450532591485e-05 -0.00021264205034145467 0.0
-0.00014601344464716188 -0.0004240061779809109 0.0
-0.0003860280583763829 -0.0003855136137783938 0.0
-0.00041193353467043473 -0.00018430337633799527 0.0
-0.00027557040547587075 -8.857926028805701e-05 0.0
-0.00044972118765968774 -0.00023424004846853412 0.0
-0.001250317956424116 -0.0004961250959245451 0.0
-0.0025543259312035727 -0.0004826702593031529 0.0
-0.003894260534908392 -0.00031645100920952044 0.0
-0.004950804400720488 -0.00023824670672526783 0.0
-0.005220059003692885 2.1847509872126476e-06 0.0
-0.004859467389871835 0.00024250327798138913 0.0
-0.0037417911139656646 0.00031750527447168913 0.0
-0.0024032533587895677 0.00047232316717231345 0.0
-0.0011427669836276278 0.00046550270168108993 0.0
-0.0004085077394135686 0.00020733043263812886 0.0
-0.00027381929822920225 8.036940984591178e-05 0.0
-0.00040845849129375275 0.00018592921813391646 0.0
-0.0003649481993947475 0.00037552265715917646 0.0
-0.00012835512170880916 0.00039775802887800763 0.0
-2.3736555297987264e-05 0.00018900865572174535 0.0
-1.2140921024716708e-05 8.710597699769324e-05 0.0
-9.139550812412418e-06 2.6124729741592643e-05 0.0
-6.171329546897963e-06 8.287882325519139e-06 0.0
-8.175141590048063e-07 6.8246354559928186e-06 0.0
-3.10221208701488e-07 5.0014293948361585e-06 0.0
1.874951157401309e-07 1.7401827481471334e-06 0.0
4.5540351551705565e-09 -9.607673514635447e-07 0.0
3.955391098366182e-07 1.2001784130818927e-06 0.0
-4.2320609951761614e-07 1.9210260422832353e-06 0.0
-1.8105172261846364e-07 -1.541442550967145e-06 0.0
-3.291196690300285e-06 1.318644438053549e-05 0.0
0.00018952017058316135 -0.00015190413910448093 0.0
-0.0005333413009446616 0.0003827165019871788 0.0
-5.295962459789431e-06 -1.8019406902909714e-05 0.0
-5.53915406638272e-05 1.9731656695760628e-06 0.0
-5.021734255849112e-06 4.158441869619622e-06 0.0
-1.908044708796394e-05 7.359141216707946e-06 0.0
-0.0001090735674876935 -3.471818233272237e-05 0.0
-0.0006561003303098176 -9.579291387946403e-06 0.0
0.00010141250946811576 4.214520129686484e-05 0.0
-9.14500462307587e-05 -0.00023657607077875266 0.0
0.00030506373581208016 0.000381274266144167 0.0
0.0002950163752628123 2.4070846676316627e-05 0.0
0.00019948502650777173 4.198673543297487e-06 0.0
0.00015319899739994693 -2.517652279192034e-06 0.0
0.0001302363970672044 4.8135117550840046e-05 0.0
0.0001456717965700881 2.0389149891906393e-06 0.0
0.00011284846852698715 4.4248130611827425e-06 0.0
1.800075791596989e-05 3.0232548549118666e-05 0.0
7.174496503555895e-05 -2.2844900512403632e-05 0.0
1.3205703078374184e-05 3.4775682383431314e-05 0.0
7.227069050782836e-06 -1.4390359778749086e-05 0.0
1.7858632259174748e-05 -2.3455405389693926e-05 0.0
-7.065646676937461e-05 0.0002277892649775727 0.0
-0.00010002436139790904 3.241073001584337e-05 0.0
-5.01752513650987e-06 1.7678070892088643e-05 0.0
-3.632526463622117e-05 -1.3983887892433775e-05 0.0
-0.00021185027069645746 0.00013156077718310736 0.0
2.4578259702058504e-05 -3.893447196925932e-06 0.0
3.1389586140527737e-05 2.5315812200660606e-05 0.0
3.7731234009531836e-06 -1.4014099709313697e-05 0.0
0.00010434684057654086 -7.616895992621951e-06 0.0
-6.879769319327449e-06 3.113439216063738e-05 0.0
9.55318035399196e-05 -4.307258466060812e-05 0.0
2.9805399132580553e-06 1.2343943740941245e-05 0.0
3.6791559501656144e-06 -2.0534852290601433e-05 0.0
4.1508994874489316e-06 4.246785589573685e-06 0.0
-0.0002454953460888587 0.00015060100089368345 0.0
-1.8752800270959226e-07 -1.7404377628966842e-06 0.0
-0.0007018522014214272 3.189516778632275e-05 0.0
1.6684965624991614e-06 1.1327107508011742e-06 0.0
1.7134356974918743e-09 -8.854122059039003e-07 0.0
-1.9524297424676853e-07 -1.6282955235000545e-07 0.0
-4.545756866874993e-09 9.607706213689436e-07 0.0
-0.0013653354556220367 -0.00019327946587162763 0.0
4.011284978009642e-07 5.345381517083282e-07 0.0
-3.95522945961963e-07 -1.2001726719657485e-06 0.0
-0.0007560349949110675 -2.2962055367106802e-05 0.0
-2.1433383546852305e-06 8.955233849487555e-07 0.0
4.2320243840258966e-07 -1.9210407177553155e-06 0.0
-3.6770332485629762e-06 1.3064803685949704e-05 0.0
-1.12368928436171e-05 1.2950273534558735e-05 0.0
-2.8535347391916283e-06 -2.2999254688832268e-05 0.0
9.407780747725268e-05 -4.1166597896539006e-05 0.0
-8.996711213630652e-07 8.22944966385161e-05 0.0
-0.00010380208884061895 2.1593930542104073e-05 0.0
7.642673361784283e-05 0.0002356484292851849 0.0
-0.00016732083037425123 8.376698934522525e-05 0.0
-0.0001895202469153837 0.0001519038872212066 0.0
0.0005333412070535122 -0.0003827166626907835 0.0
0.0001038018764226778 -2.1593872679667877e-05 0.0
3.193767675333163e-05 -5.515183373128596e-05 0.0
1.1237160751922503e-05 -1.2950253337554239e-05 0.0
-1.7598846609741964e-05 -1.0475283857658269e-05 0.0
1.9080682036999076e-05 -7.358956410778218e-06 0.0
0.00010907288547407112 3.471810857654699e-05 0.0
2.4927036344422047e-05 -1.1449054911693131e-05 0.0
2.853565547525179e-06 2.2999341679246543e-05 0.0
-4.1743874537685064e-05 2.60132285896764e-06 0.0
3.6770934637442874e-06 -1.3064862672696377e-05 0.0
-0.00011450318838063004 -6.7629586572872345e-06 0.0
5.02177779167927e-06 -4.158445328037199e-06 0.0
-0.00010141425875196642 -4.214472962204002e-05 0.0
-2.730651904420718e-07 -6.953731618836944e-07 0.0
0.0007018378146172698 -3.18951665392771e-05 0.0
-0.00010434859791724692 7.6156502684027915e-06 0.0
-3.138953059263647e-05 -2.5316061963082912e-05 0.0
1.331298133326508e-07 -9.83886281856358e-07 0.0
-2.45797922665037e-05 3.891593243616836e-06 0.0
4.1352278212085566e-07 -4.006365949918396e-07 0.0
3.632081027825682e-05 1.3979825299838977e-05 0.0
-1.4287730984854183e-07 1.718537048546376e-07 0.0
0.00010002880160194454 -3.240834991141467e-05 0.0
3.171185952993396e-07 -1.1413148330409772e-06 0.0
-4.150801744216642e-06 -4.2467791012526505e-06 0.0
2.6213635413545013e-06 1.2700083304704623e-05 0.0
-2.980691586245088e-06 -1.2344046735454434e-05 0.0
-3.6787929486213263e-06 2.0534166648275668e-05 0.0
-1.786034403539324e-05 2.3451553362244037e-05 0.0
1.6295947860321508e-06 2.0986536613630703e-05 0.0
-7.221733723780454e-06 1.439196588314982e-05 0.0
-2.864521664901128e-07 -7.213426739347627e-05 0.0
-7.173497977963292e-05 2.2841693040816447e-05 0.0
-3.7697424181523524e-06 1.400546810259435e-05 0.0
5.0161881068882955e-06 -1.76678320535886e-05 0.0
7.065610244013158e-05 -0.00022778882704625685 0.0
-0.00011282883982823938 -4.418082346848637e-06 0.0
-1.319818480956669e-05 -3.477386389588784e-05 0.0
-0.00014566033819408183 -2.0378877388783264e-06 0.0
-0.00015319470382952325 2.5194680957531658e-06 0.0
-0.00019951572852913593 -4.200978846260388e-06 0.0
-1.798293762538106e-05 -3.021505368310983e-05 0.0
-0.0001302174168544547 -4.8139001391647086e-05 0.0
-0.00029499184672454864 -2.4034951245617737e-05 0.0
-0.0003050304646754119 -0.0003812578811491039 0.0
9.145231979533022e-05 0.00023658433288419248 0.0
2.14335618193628e-06 -8.955156323407322e-07 0.0
-2.1846897380154906e-07 1.807633066755887e-07 0.0
0.0013457081311452515 -0.00018610141574911914 0.0
-1.942117896092864e-05 -6.0705214613129875e-06 0.0
-7.151137962601682e-06 -3.4501950229991745e-05 0.0
5.2959767791524485e-06 1.801953844825668e-05 0.0
8.997364017618209e-07 -8.229461024763854e-05 0.0
5.5391562992318304e-05 -1.973153574251355e-06 0.0
-7.642738195061649e-05 -0.0002356493670926493 0.0
1.4821662208087667e-05 5.61340345467962e-05 0.0
-2.3988703688705323e-05 5.1325519743493964e-05 0.0
7.151145337972014e-06 3.4501788359261316e-05 0.0
-1.4822996982023307e-05 -5.6134090741852185e-05 0.0
6.259525804299185e-06 -0.00010997356638826184 0.0
1.7599141672953647e-05 1.0475382617031181e-05 0.0
9.263710897700864e-06 4.3715920749279064e-06 0.0
-1.3312262766840933e-07 9.838870084555634e-07 0.0
1.9421182422182167e-05 6.07087930430656e-06 0.0
-0.0006844042005018264 6.789126870134833e-06 0.0
-2.492756527714394e-05 1.1449091326517385e-05 0.0
4.461384015772193e-05 -2.451814827669516e-05 0.0
0.00011450219845159241 6.763494002767495e-06 0.0
2.8507034317559133e-07 7.213217463203482e-05 0.0
8.869474414487262e-05 3.840325962121833e-05 0.0
-2.4745215856263806e-05 5.9389185029948e-05 0.0
-1.6309227142420117e-06 -2.0984839687743783e-05 0.0
2.368130751792785e-05 0.00010446980824771625 0.0
-2.6215171547305176e-06 -1.2701407778438045e-05 0.0
-3.171292334327191e-07 1.141514796379661e-06 0.0
-2.723475399972655e-07 4.324758145045748e-07 0.0
4.174312422670109e-05 -2.600819639033032e-06 0.0
-0.0013457203528552844 0.00018610339929754204 0.0
1.4288450069978226e-07 -1.7183970107146892e-07 0.0
-4.135271971740111e-07 4.006465712347859e-07 0.0
-1.9745910591141836e-07 -2.1346372489480319e-07 0.0
2.1847090134196733e-07 -1.8075971282556688e-07 0.0
-0.000284385180728552 -0.00015311956967932895 0.0
2.730673828587091e-07 6.953702452543975e-07 0.0
1.8105669600576315e-07 1.5414441379214093e-06 0.0
3.29117688267796e-06 -1.3186472665371765e-05 0.0
1.4287182869532577e-06 -2.305807079288619e-05 0.0
6.344765900158558e-07 2.073063327168886e-05 0.0
-3.193767896358877e-05 5.515181740539168e-05 0.0
0.00039169221735738786 -0.000244729273343452 0.0
-0.000391691720516627 0.0002447290525281628 0.0
0.00016732071196592813 -8.376713253774326e-05 0.0
2.3988598133067565e-05 -5.1325395429420776e-05 0.0
-9.407798561212119e-05 4.116670528551356e-05 0.0
-6.345260427279363e-07 -2.0730445252718765e-05 0.0
-9.26346198350112e-06 -4.37151955530495e-06 0.0
-6.258217870907222e-06 0.00010997387615402479 0.0
0.0002843867921466308 0.0001531196978199359 0.0
-1.428750135770782e-06 2.3058159135772578e-05 0.0
0.0007560353637082282 2.2961991302716182e-05 0.0
0.0006844012912894158 -6.787351082073747e-06 0.0
0.0013653277560794856 0.00019327931267713974 0.0
-4.4614975893861385e-05 2.4518092076053933e-05 0.0
0.0006560865816487563 9.578638392515007e-06 0.0
-9.553280694561987e-05 4.307293497481802e-05 0.0
0.00024548682548669446 -0.0001505999235919417 0.0
-4.0112508230066906e-07 -5.345294652367421e-07 0.0
-2.367628310896453e-05 -0.00010447112539866177 0.0
-8.86686736268935e-05 -3.839327667143577e-05 0.0
-1.6924366420797793e-09 8.853733490389252e-07 0.0
2.477769005918004e-05 -5.9374551123254365e-05 0.0
6.879822439167474e-06 -3.1133758421509665e-05 0.0
0.00021185260431963346 -0.00013155724979935433 0.0
2.723232916089136e-07 -4.3244314787742566e-07 0.0
1.9523124433919953e-07 1.628314492366813e-07 0.0
-1.6684377732851775e-06 -1.132738442168183e-06 0.0
1.9745887416881053e-07 2.1346661757966938e-07 0.0
-7.709576050519084e-05 -0.00016857376150145156 0.0
7.709578327998548e-05 0.00016857379430517842 0.0
-0.0002178883857729199 -0.00012254515157637778 0.0
0.00021788702097564445 0.00012254420914607688 0.0
4.093879948242251e-07 -5.758167829000677e-07 0.0
3.1073746845828243e-07 -3.248748974412967e-07 0.0
-9.33403690684726e-06 -7.471516238803896e-06 0.0
-9.620849468301633e-06 -2.080804595448573e-06 0.0
-2.4220669685186678e-05 2.9225900621760456e-05 0.0
-3.497396332775385e-05 -4.631469616677403e-05 0.0
-1.4107477204274376e-05 -9.982350034521757e-06 0.0
-1.586201310888953e-05 1.1071579932299837e-05 0.0
1.9136027727842836e-05 2.851125531038792e-05 0.0
3.5962502662511245e-06 -2.841831896656924e-06 0.0
-7.3963108836738685e-06 3.4440184662778046e-06 0.0
-1.046812009194214e-05 1.1026784447344307e-06 0.0
-1.5246064639711807e-06 3.25199370124295e-06 0.0
7.157487265655515e-07 3.605309442169422e-06 0.0
3.6015443884705927e-07 5.085881972268419e-07 0.0
-4.093909251682928e-07 5.758384103547826e-07 0.0
-7.504101286196045e-08 6.284009366455725e-07 0.0
-3.107400024318152e-07 3.248795450013603e-07 0.0
-1.0073035571866422e-06 3.872469991373635e-06 0.0
-3.1939017779483114e-06 -7.779553372444362e-06 0.0
1.6979897662335744e-05 6.6536131451413e-06 0.0
-1.4235937954226968e-06 -3.921573399041789e-06 0.0
-3.7898318951214915e-07 -9.343029465113374e-07 0.0